# vtk DataFile Version 3.0
Triangulation generated with deal.II
ASCII
DATASET UNSTRUCTURED_GRID
POINTS 1326 double
0.5 1.5 -15
0.5 1 -15
1 1.5 -15
0.833333 1.16667 -15
0.5 0.5 -15
1 1 -15
1.5 1.5 -15
1 0.5 -15
1.16667 0.833333 -15
1.5 0.5 -15
1.5 1 -15
0 1.5 -15
0 1 -15
0 0.5 -15
1.5 -2.75546e-16 -15
1 -2.75546e-16 -15
0.5 -2.75546e-16 -15
0 -2.75546e-16 -15
0.264 -2.91711e-16 -15
1.61653e-17 0.264 -15
0.22665 0.22665 -15
0.5 1.5 -14.0125
0.5 1 -14.0125
1 1.5 -14.0125
0.833333 1.16667 -14.0125
0.5 0.5 -14.0125
1 1 -14.0125
1.5 1.5 -14.0125
1 0.5 -14.0125
1.16667 0.833333 -14.0125
1.5 0.5 -14.0125
1.5 1 -14.0125
0 1.5 -14.0125
0 1 -14.0125
0 0.5 -14.0125
1.5 -2.75546e-16 -14.0125
1 -2.75546e-16 -14.0125
0.5 -2.75546e-16 -14.0125
0 -2.75546e-16 -14.0125
0.264 -2.91711e-16 -14.0125
1.61653e-17 0.264 -14.0125
0.22665 0.22665 -14.0125
0.5 1.5 -13.05
0.5 1 -13.05
1 1.5 -13.05
0.833333 1.16667 -13.05
0.5 0.5 -13.05
1 1 -13.05
1.5 1.5 -13.05
1 0.5 -13.05
1.16667 0.833333 -13.05
1.5 0.5 -13.05
1.5 1 -13.05
0 1.5 -13.05
0 1 -13.05
0 0.5 -13.05
1.5 -2.75546e-16 -13.05
1 -2.75546e-16 -13.05
0.5 -2.75546e-16 -13.05
0 -2.75546e-16 -13.05
0.264 -2.91711e-16 -13.05
1.61653e-17 0.264 -13.05
0.22665 0.22665 -13.05
0.5 1.5 -12.1125
0.5 1 -12.1125
1 1.5 -12.1125
0.833333 1.16667 -12.1125
0.5 0.5 -12.1125
1 1 -12.1125
1.5 1.5 -12.1125
1 0.5 -12.1125
1.16667 0.833333 -12.1125
1.5 0.5 -12.1125
1.5 1 -12.1125
0 1.5 -12.1125
0 1 -12.1125
0 0.5 -12.1125
1.5 -2.75546e-16 -12.1125
1 -2.75546e-16 -12.1125
0.5 -2.75546e-16 -12.1125
0 -2.75546e-16 -12.1125
0.264 -2.91711e-16 -12.1125
1.61653e-17 0.264 -12.1125
0.22665 0.22665 -12.1125
0.5 1.5 -11.2
0.5 1 -11.2
1 1.5 -11.2
0.833333 1.16667 -11.2
0.5 0.5 -11.2
1 1 -11.2
1.5 1.5 -11.2
1 0.5 -11.2
1.16667 0.833333 -11.2
1.5 0.5 -11.2
1.5 1 -11.2
0 1.5 -11.2
0 1 -11.2
0 0.5 -11.2
1.5 -2.75546e-16 -11.2
1 -2.75546e-16 -11.2
0.5 -2.75546e-16 -11.2
0 -2.75546e-16 -11.2
0.264 -2.91711e-16 -11.2
1.61653e-17 0.264 -11.2
0.22665 0.22665 -11.2
0.5 1.5 -10.3125
0.5 1 -10.3125
1 1.5 -10.3125
0.833333 1.16667 -10.3125
0.5 0.5 -10.3125
1 1 -10.3125
1.5 1.5 -10.3125
1 0.5 -10.3125
1.16667 0.833333 -10.3125
1.5 0.5 -10.3125
1.5 1 -10.3125
0 1.5 -10.3125
0 1 -10.3125
0 0.5 -10.3125
1.5 -2.75546e-16 -10.3125
1 -2.75546e-16 -10.3125
0.5 -2.75546e-16 -10.3125
0 -2.75546e-16 -10.3125
0.264 -2.91711e-16 -10.3125
1.61653e-17 0.264 -10.3125
0.22665 0.22665 -10.3125
0.5 1.5 -9.45
0.5 1 -9.45
1 1.5 -9.45
0.833333 1.16667 -9.45
0.5 0.5 -9.45
1 1 -9.45
1.5 1.5 -9.45
1 0.5 -9.45
1.16667 0.833333 -9.45
1.5 0.5 -9.45
1.5 1 -9.45
0 1.5 -9.45
0 1 -9.45
0 0.5 -9.45
1.5 -2.75546e-16 -9.45
1 -2.75546e-16 -9.45
0.5 -2.75546e-16 -9.45
0 -2.75546e-16 -9.45
0.264 -2.91711e-16 -9.45
1.61653e-17 0.264 -9.45
0.22665 0.22665 -9.45
0.5 1.5 -8.6125
0.5 1 -8.6125
1 1.5 -8.6125
0.833333 1.16667 -8.6125
0.5 0.5 -8.6125
1 1 -8.6125
1.5 1.5 -8.6125
1 0.5 -8.6125
1.16667 0.833333 -8.6125
1.5 0.5 -8.6125
1.5 1 -8.6125
0 1.5 -8.6125
0 1 -8.6125
0 0.5 -8.6125
1.5 -2.75546e-16 -8.6125
1 -2.75546e-16 -8.6125
0.5 -2.75546e-16 -8.6125
0 -2.75546e-16 -8.6125
0.264 -2.91711e-16 -8.6125
1.61653e-17 0.264 -8.6125
0.22665 0.22665 -8.6125
0.5 1.5 -7.8
0.5 1 -7.8
1 1.5 -7.8
0.833333 1.16667 -7.8
0.5 0.5 -7.8
1 1 -7.8
1.5 1.5 -7.8
1 0.5 -7.8
1.16667 0.833333 -7.8
1.5 0.5 -7.8
1.5 1 -7.8
0 1.5 -7.8
0 1 -7.8
0 0.5 -7.8
1.5 -2.75546e-16 -7.8
1 -2.75546e-16 -7.8
0.5 -2.75546e-16 -7.8
0 -2.75546e-16 -7.8
0.264 -2.91711e-16 -7.8
1.61653e-17 0.264 -7.8
0.22665 0.22665 -7.8
0.5 1.5 -7.0125
0.5 1 -7.0125
1 1.5 -7.0125
0.833333 1.16667 -7.0125
0.5 0.5 -7.0125
1 1 -7.0125
1.5 1.5 -7.0125
1 0.5 -7.0125
1.16667 0.833333 -7.0125
1.5 0.5 -7.0125
1.5 1 -7.0125
0 1.5 -7.0125
0 1 -7.0125
0 0.5 -7.0125
1.5 -2.75546e-16 -7.0125
1 -2.75546e-16 -7.0125
0.5 -2.75546e-16 -7.0125
0 -2.75546e-16 -7.0125
0.264 -2.91711e-16 -7.0125
1.61653e-17 0.264 -7.0125
0.22665 0.22665 -7.0125
0.5 1.5 -6.25
0.5 1 -6.25
1 1.5 -6.25
0.833333 1.16667 -6.25
0.5 0.5 -6.25
1 1 -6.25
1.5 1.5 -6.25
1 0.5 -6.25
1.16667 0.833333 -6.25
1.5 0.5 -6.25
1.5 1 -6.25
0 1.5 -6.25
0 1 -6.25
0 0.5 -6.25
1.5 -2.75546e-16 -6.25
1 -2.75546e-16 -6.25
0.5 -2.75546e-16 -6.25
0 -2.75546e-16 -6.25
0.264 -2.91711e-16 -6.25
1.61653e-17 0.264 -6.25
0.22665 0.22665 -6.25
0.5 1.5 -5.5125
0.5 1 -5.5125
1 1.5 -5.5125
0.833333 1.16667 -5.5125
0.5 0.5 -5.5125
1 1 -5.5125
1.5 1.5 -5.5125
1 0.5 -5.5125
1.16667 0.833333 -5.5125
1.5 0.5 -5.5125
1.5 1 -5.5125
0 1.5 -5.5125
0 1 -5.5125
0 0.5 -5.5125
1.5 -2.75546e-16 -5.5125
1 -2.75546e-16 -5.5125
0.5 -2.75546e-16 -5.5125
0 -2.75546e-16 -5.5125
0.264 -2.91711e-16 -5.5125
1.61653e-17 0.264 -5.5125
0.22665 0.22665 -5.5125
0.5 1.5 -4.8
0.5 1 -4.8
1 1.5 -4.8
0.833333 1.16667 -4.8
0.5 0.5 -4.8
1 1 -4.8
1.5 1.5 -4.8
1 0.5 -4.8
1.16667 0.833333 -4.8
1.5 0.5 -4.8
1.5 1 -4.8
0 1.5 -4.8
0 1 -4.8
0 0.5 -4.8
1.5 -2.75546e-16 -4.8
1 -2.75546e-16 -4.8
0.5 -2.75546e-16 -4.8
0 -2.75546e-16 -4.8
0.264 -2.91711e-16 -4.8
1.61653e-17 0.264 -4.8
0.22665 0.22665 -4.8
0.5 1.5 -4.1125
0.5 1 -4.1125
1 1.5 -4.1125
0.833333 1.16667 -4.1125
0.5 0.5 -4.1125
1 1 -4.1125
1.5 1.5 -4.1125
1 0.5 -4.1125
1.16667 0.833333 -4.1125
1.5 0.5 -4.1125
1.5 1 -4.1125
0 1.5 -4.1125
0 1 -4.1125
0 0.5 -4.1125
1.5 -2.75546e-16 -4.1125
1 -2.75546e-16 -4.1125
0.5 -2.75546e-16 -4.1125
0 -2.75546e-16 -4.1125
0.264 -2.91711e-16 -4.1125
1.61653e-17 0.264 -4.1125
0.22665 0.22665 -4.1125
0.5 1.5 -3.45
0.5 1 -3.45
1 1.5 -3.45
0.833333 1.16667 -3.45
0.5 0.5 -3.45
1 1 -3.45
1.5 1.5 -3.45
1 0.5 -3.45
1.16667 0.833333 -3.45
1.5 0.5 -3.45
1.5 1 -3.45
0 1.5 -3.45
0 1 -3.45
0 0.5 -3.45
1.5 -2.75546e-16 -3.45
1 -2.75546e-16 -3.45
0.5 -2.75546e-16 -3.45
0 -2.75546e-16 -3.45
0.264 -2.91711e-16 -3.45
1.61653e-17 0.264 -3.45
0.22665 0.22665 -3.45
0.5 1.5 -2.8125
0.5 1 -2.8125
1 1.5 -2.8125
0.833333 1.16667 -2.8125
0.5 0.5 -2.8125
1 1 -2.8125
1.5 1.5 -2.8125
1 0.5 -2.8125
1.16667 0.833333 -2.8125
1.5 0.5 -2.8125
1.5 1 -2.8125
0 1.5 -2.8125
0 1 -2.8125
0 0.5 -2.8125
1.5 -2.75546e-16 -2.8125
1 -2.75546e-16 -2.8125
0.5 -2.75546e-16 -2.8125
0 -2.75546e-16 -2.8125
0.264 -2.91711e-16 -2.8125
1.61653e-17 0.264 -2.8125
0.22665 0.22665 -2.8125
0.5 1.5 -2.2
0.5 1 -2.2
1 1.5 -2.2
0.833333 1.16667 -2.2
0.5 0.5 -2.2
1 1 -2.2
1.5 1.5 -2.2
1 0.5 -2.2
1.16667 0.833333 -2.2
1.5 0.5 -2.2
1.5 1 -2.2
0 1.5 -2.2
0 1 -2.2
0 0.5 -2.2
1.5 -2.75546e-16 -2.2
1 -2.75546e-16 -2.2
0.5 -2.75546e-16 -2.2
0 -2.75546e-16 -2.2
0.264 -2.91711e-16 -2.2
1.61653e-17 0.264 -2.2
0.22665 0.22665 -2.2
0.5 1.5 -1.6125
0.5 1 -1.6125
1 1.5 -1.6125
0.833333 1.16667 -1.6125
0.5 0.5 -1.6125
1 1 -1.6125
1.5 1.5 -1.6125
1 0.5 -1.6125
1.16667 0.833333 -1.6125
1.5 0.5 -1.6125
1.5 1 -1.6125
0 1.5 -1.6125
0 1 -1.6125
0 0.5 -1.6125
1.5 -2.75546e-16 -1.6125
1 -2.75546e-16 -1.6125
0.5 -2.75546e-16 -1.6125
0 -2.75546e-16 -1.6125
0.264 -2.91711e-16 -1.6125
1.61653e-17 0.264 -1.6125
0.22665 0.22665 -1.6125
0.5 1.5 -1.05
0.5 1 -1.05
1 1.5 -1.05
0.833333 1.16667 -1.05
0.5 0.5 -1.05
1 1 -1.05
1.5 1.5 -1.05
1 0.5 -1.05
1.16667 0.833333 -1.05
1.5 0.5 -1.05
1.5 1 -1.05
0 1.5 -1.05
0 1 -1.05
0 0.5 -1.05
1.5 -2.75546e-16 -1.05
1 -2.75546e-16 -1.05
0.5 -2.75546e-16 -1.05
0 -2.75546e-16 -1.05
0.264 -2.91711e-16 -1.05
1.61653e-17 0.264 -1.05
0.22665 0.22665 -1.05
0.5 1.5 -0.5125
0.5 1 -0.5125
1 1.5 -0.5125
0.833333 1.16667 -0.5125
0.5 0.5 -0.5125
1 1 -0.5125
1.5 1.5 -0.5125
1 0.5 -0.5125
1.16667 0.833333 -0.5125
1.5 0.5 -0.5125
1.5 1 -0.5125
0 1.5 -0.5125
0 1 -0.5125
0 0.5 -0.5125
1.5 -2.75546e-16 -0.5125
1 -2.75546e-16 -0.5125
0.5 -2.75546e-16 -0.5125
0 -2.75546e-16 -0.5125
0.264 -2.91711e-16 -0.5125
1.61653e-17 0.264 -0.5125
0.22665 0.22665 -0.5125
0.5 1.5 0
0.5 1 0
1 1.5 0
0.833333 1.16667 0
0.353553 0.353553 0
1 1 0
1.5 1.5 0
1 0.5 0
1.16667 0.833333 0
1.5 0.5 0
1.5 1 0
0 1.5 0
0 1 0
0 0.5 0
1.5 -2.75546e-16 0
1 -2.75546e-16 0
0.5 -2.75546e-16 0
0 -2.75546e-16 0
0.264 -2.91711e-16 0
1.61653e-17 0.264 0
0.22665 0.22665 0
0.5 0.5 14
1.5 0.353553 13.8536
0.353553 1.5 13.8536
1.5 1.5 14
0.353553 0.353553 15
1.5 0.5 15
0.5 1.5 15
1.5 1.5 15
1 0.5 14
0.5 1 14
1.06066 1.06066 14
1.5 1 14
1 1.5 14
0.5 0.5 14.5
1.06066 0.5 14.5607
0.5 1.06066 14.5607
1.5 0.5 14.5
1 0.5 15
0.5 1.5 14.5
0.5 1 15
1.5 1 14.5
1 1.5 14.5
1.5 1.5 14.5
1 1 15
1.5 1 15
1 1.5 15
1.16667 0.833333 14.6667
1.16667 0.5 14.6667
1.16667 0.833333 15
1.5 0.833333 14.6667
0.833333 1.5 14.6667
0.5 1.16667 14.6667
0.833333 1.16667 15
0.833333 1.16667 14.6667
1.16667 1.16667 14
1.16667 1.16667 14.3333
1.16667 1.5 14.3333
1.5 1.16667 14.3333
0.5 0.833333 14.3333
0.833333 0.833333 14
0.912871 0.912871 14.4129
0.833333 0.5 14.3333
1.25 0.75 14.75
0.75 1.25 14.75
1.25 1.25 14.25
0.75 0.75 14.25
1 1 14.5
0 1.5 15
0 1 15
0 1.5 14.5
0 1.16667 14.6667
0 1.5 14
0 1.11803 14.618
0 0.5 15
0 0.5 14
0 1 14
0 0.5 14.5
0 0.833333 14.3333
1.5 1.5 13.5
1 1.5 13.5
1.5 1 13.5
1.16667 1.16667 13.5
1.5 0.5 13.5
1.11803 1.11803 13.5
0.5 1.5 13.5
0.5 0.5 13.5
1 0.5 13.5
0.5 1 13.5
0.833333 0.833333 13.5
1.5 0 15
1.5 0 14.5
1 0 15
1.16667 0 14.6667
0.5 0 15
1.11803 0 14.618
1.5 0 14
0.5 0 14
0.5 0 14.5
1 0 14
0.833333 0 14.3333
0 0 13.5
0.5 0 13.5
1 0 13.5
0 0.5 13.5
0 0 14
0 1 13.5
0 0 14.5
0 1.5 13.5
1.61653e-17 1.5 13.764
-3.23307e-17 1.236 13.5
-1.38783e-17 1.27335 13.7266
0.264 1.5 13.5
0.22665 1.5 13.7266
0.22665 1.27335 13.5
0.1876 1.3124 13.6876
1.5 9.18485e-17 13.5
1.5 0.264 13.5
1.236 7.56832e-17 13.5
1.27335 0.22665 13.5
1.5 7.56832e-17 13.764
1.5 0.22665 13.7266
1.27335 6.40919e-17 13.7266
1.3124 0.1876 13.6876
-9.18485e-17 5.6241e-33 15
0.264 6.16298e-33 15
-7.56832e-17 -3.23307e-17 14.736
0.22665 -2.77566e-17 14.7734
-9.18485e-17 0.264 15
0.22665 0.22665 15
-7.79702e-17 0.22665 14.7734
0.1876 0.1876 14.8124
0.5 0.5 13
1.5 0.353553 13.1464
0.353553 0.353553 12
1.5 0.5 12
0.353553 1.5 13.1464
1.5 1.5 13
0.5 1.5 12
1.5 1.5 12
1 0.5 13
0.5 0.5 12.5
1.06066 0.5 12.4393
1.5 0.5 12.5
1 0.5 12
0.5 1 13
1.06066 1.06066 13
0.5 1.06066 12.4393
1.5 1 13
1 1.5 13
0.5 1 12
0.5 1.5 12.5
1.5 1 12.5
1 1 12
1.5 1 12
1 1.5 12.5
1.5 1.5 12.5
1 1.5 12
1.16667 1.16667 12.6667
1.16667 1.16667 13
[...]
CELL_DATA 6991
SCALARS MaterialID int 1
LOOKUP_TABLE default
0 0 0 0 0 0 0 0 0 0 0 0 0 0 0 0 0 0 0 0 0 0 0 0 0 0 0 0 0 0 0 0 0 0 0 0 0 0 0 0 0 0 0 0 0 0 0 0 0 0 0 0 0 0 0 0 0 0 0 0 0 0 0 0 0 0 0 0 0 0 0 0 0 0 0 0 0 0 0 0 0 0 0 0 0 0 0 0 0 0 0 0 0 0 0 0 0 0 0 0 0 0 0 0 0 0 0 0 0 0 0 0 0 0 0 0 0 0 0 0 0 0 0 0 0 0 0 0 0 0 0 0 0 0 0 0 0 0 0 0 0 0 0 0 0 0 0 0 0 0 0 0 0 0 0 0 0 0 0 0 0 0 0 0 0 0 0 0 0 0 0 0 0 0 0 0 0 0 0 0 0 0 0 0 0 0 0 0 0 0 0 0 0 0 0 0 0 0 0 0 0 0 0 0 0 0 0 0 0 0 0 0 0 0 0 0 0 0 0 0 0 0 0 0 0 0 0 0 0 0 0 0 0 0 0 0 0 0 0 0 0 0 0 0 0 0 0 0 0 0 0 0 0 0 0 0 0 0 0 0 0 0 0 0 0 0 0 0 0 0 0 0 1 1 1 1 0 0 0 0 0 0 0 1 1 1 0 0 0 1 1 1 0 0 0 1 1 1 1 1 1 1 1 1 1 1 1 1 1 1 1 1 1 1 0 0 0 0 0 0 0 0 0 0 0 0 1 1 1 1 0 0 0 0 0 0 0 1 1 1 0 0 0 1 1 1 0 0 0 1 1 1 1 1 1 1 1 1 1 1 1 1 1 1 1 1 1 1 0 0 0 0 0 0 0 0 0 0 0 0 1 1 1 1 0 0 0 0 0 0 0 1 1 1 0 0 0 1 1 1 0 0 0 1 1 1 1 1 1 1 1 1 1 1 1 1 1 1 1 1 1 1 0 0 0 0 0 0 0 0 0 0 0 0 1 1 1 1 0 0 0 0 0 0 0 1 1 1 0 0 0 1 1 1 0 0 0 1 1 1 1 1 1 1 1 1 1 1 1 1 1 1 1 1 1 1 0 0 0 0 0 0 0 0 0 0 0 0 1 1 1 1 0 0 0 0 0 0 0 1 1 1 0 0 0 1 1 1 0 0 0 1 1 1 1 1 1 1 1 1 1 1 1 1 1 1 1 1 1 1 0 0 0 0 0 0 0 0 0 0 0 0 1 1 1 1 0 0 0 0 0 0 0 1 1 1 0 0 0 1 1 1 0 0 0 1 1 1 1 1 1 1 1 1 1 1 1 1 1 1 1 1 1 1 0 0 0 0 0 0 0 0 0 0 0 0 1 1 1 1 0 0 0 0 0 0 0 1 1 1 0 0 0 1 1 1 0 0 0 1 1 1 1 1 1 1 1 1 1 1 1 1 1 1 1 1 1 1 0 0 0 0 0 0 0 0 0 0 0 0 1 1 1 1 0 0 0 0 0 0 0 1 1 1 0 0 0 1 1 1 0 0 0 1 1 1 1 1 1 1 1 1 1 1 1 1 1 1 1 1 1 1 0 0 0 0 0 0 0 0 0 0 0 0 1 1 1 1 0 0 0 0 0 0 0 1 1 1 0 0 0 1 1 1 0 0 0 1 1 1 1 1 1 1 1 1 1 1 1 1 1 1 1 1 1 1 0 0 0 0 0 0 0 0 0 0 0 0 1 1 1 1 0 0 0 0 0 0 0 1 1 1 0 0 0 1 1 1 0 0 0 1 1 1 1 1 1 1 1 1 1 1 1 1 1 1 1 1 1 1 
-1 0 0 -1 -1 0 0 -1 -1 -1 -1 -1 -1 0 0 0 -1 0 -1 0 0 -1 -1 0 0 0 -1 0 -1 0 0 0 0 0 0 -1 0 0 0 -1 0 0 0 0 -1 -1 -1 -1 0 -1 -1 -1 -1 -1 -1 -1 -1 -1 -1 0 -1 -1 -1 0 -1 -1 0 -1 -1 -1 0 0 -1 -1 -1 -1 0 0 0 -1 0 -1 -1 0 -1 -1 0 0 -1 0 -1 -1 -1 -1 0 -1 -1 -1 -1 -1 -1 -1 -1 -1 -1 0 -1 -1 -1 0 -1 -1 0 -1 -1 -1 0 0 -1 -1 -1 -1 0 0 0 -1 0 -1 -1 0 -1 -1 0 0 -1 0 -1 -1 -1 -1 0 -1 -1 -1 -1 -1 -1 -1 -1 -1 -1 0 -1 -1 -1 0 -1 -1 0 -1 -1 -1 0 0 -1 -1 -1 -1 0 0 0 -1 0 -1 -1 0 -1 -1 0 0 -1 0 -1 -1 -1 -1 0 -1 -1 -1 -1 -1 -1 -1 -1 -1 -1 0 -1 -1 -1 0 -1 -1 0 -1 -1 -1 0 0 -1 -1 -1 -1 0 0 0 -1 0 -1 -1 0 -1 -1 0 0 -1 0 -1 -1 -1 -1 0 -1 -1 -1 -1 -1 -1 -1 -1 -1 -1 0 -1 -1 -1 0 -1 -1 0 -1 -1 -1 0 0 -1 -1 -1 -1 0 0 0 -1 0 -1 -1 0 -1 -1 0 0 -1 0 -1 -1 -1 -1 0 -1 -1 -1 -1 -1 -1 -1 -1 -1 -1 0 -1 -1 -1 0 -1 -1 0 -1 -1 -1 0 0 -1 -1 -1 -1 0 0 0 -1 0 -1 -1 0 -1 -1 0 0 -1 0 -1 -1 -1 -1 0 -1 -1 -1 -1 -1 -1 -1 -1 -1 -1 0 -1 -1 -1 0 -1 -1 0 -1 -1 -1 0 0 -1 -1 -1 -1 0 0 0 -1 0 -1 -1 0 -1 -1 0 0 -1 0 -1 -1 -1 -1 0 -1 -1 -1 -1 -1 -1 -1 -1 -1 -1 0 -1 -1 -1 0 -1 -1 0 -1 -1 -1 0 0 -1 -1 -1 -1 0 0 0 -1 0 -1 -1 0 -1 -1 0 0 -1 0 -1 -1 -1 -1 0 -1 -1 -1 -1 -1 -1 -1 -1 -1 -1 0 -1 -1 -1 0 -1 -1 0 -1 -1 -1 0 0 -1 -1 -1 -1 0 0 0 -1 0 -1 -1 0 -1 -1 0 0 -1 0 -1 -1 -1 -1 0 -1 -1 -1 -1 -1 -1 -1 -1 -1 -1 0 -1 -1 -1 0 -1 -1 0 -1 -1 -1 0 0 -1 -1 -1 -1 0 0 0 -1 0 -1 -1 0 -1 -1 0 0 -1 0 -1 -1 -1 -1 0 -1 -1 -1 -1 -1 -1 -1 -1 -1 -1 0 -1 -1 -1 0 -1 -1 0 -1 -1 -1 0 0 -1 -1 -1 -1 0 0 0 -1 0 -1 -1 0 -1 -1 0 0 -1 0 -1 -1 -1 -1 0 -1 -1 -1 -1 -1 -1 -1 -1 -1 -1 0 -1 -1 -1 0 -1 -1 0 -1 -1 -1 0 0 -1 -1 -1 -1 0 0 0 -1 0 -1 -1 0 -1 -1 0 0 -1 0 -1 -1 -1 -1 0 -1 -1 -1 -1 -1 -1 -1 -1 -1 -1 0 -1 -1 -1 0 -1 -1 0 -1 -1 -1 0 0 -1 -1 -1 -1 0 0 0 -1 0 -1 -1 0 -1 -1 0 0 -1 0 -1 -1 -1 -1 0 -1 -1 -1 -1 -1 -1 -1 -1 -1 -1 0 -1 -1 -1 0 -1 -1 0 -1 -1 -1 0 0 -1 -1 -1 -1 0 0 0 -1 0 -1 -1 0 -1 -1 0 0 -1 0 -1 -1 -1 -1 0 -1 -1 -1 -1 -1 -1 -1 -1 -1 -1 0 -1 -1 -1 0 -1 -1 0 -1 -1 -1 0 0 -1 -1 -1 -1 0 0 0 -1 0 -1 -1 0 -1 -1 0 0 -1 0 -1 -1 -1 -1 0 -1 -1 -1 -1 -1 -1 -1 -1 -1 -1 0 -1 -1 -1 0 -1 -1 0 -1 -1 -1 0 0 -1 -1 -1 -1 0 0 0 -1 0 -1 -1 0 -1 -1 0 0 -1 0 -1 -1 -1 -1 0 -1 -1 -1 -1 -1 -1 -1 -1 -1 -1 0 -1 -1 -1 0 -1 -1 0 -1 -1 -1 0 0 -1 -1 -1 -1 0 0 0 -1 0 -1 -1 0 -1 -1 0 0 -1 0 -1 -1 -1 -1 0 -1 -1 -1 -1 -1 -1 -1 -1 -1 -1 0 -1 -1 -1 0 -1 -1 0 -1 -1 -1 0 0 -1 -1 -1 -1 0 0 0 -1 0 -1 -1 0 -1 -1 0 0 -1 0 -1 -1 -1 -1 0 -1 -1 -1 -1 -1 -1 -1 -1 -1 -1 0 -1 -1 -1 0 -1 -1 0 -1 -1 -1 0 0 -1 -1 -1 -1 0 0 0 -1 0 -1 -1 0 -1 -1 0 0 -1 0 -1 -1 -1 -1 0 -1 -1 -1 -1 -1 -1 -1 -1 -1 -1 -1 -1 -1 -1 -1 0 -1 -1 -1 0 -1 -1 0 0 -1 -1 0 -1 -1 -1 0 0 -1 -1 -1 -1 -1 0 0 0 0 -1 0 -1 -1 0 -1 -1 0 -1 0 0 -1 0 -1 -1 -1 -1 -1 -1 -1 -1 0 -1 -1 -1 -1 -1 -1 -1 -1 -1 -1 0 0 -1 -1 -1 0 0 -1 -1 -1 -1 -1 -1 0 -1 0 -1 0 -1 0 0 0 -1 0 0 -1 -1 0 -1 -1 -1 -1 -1 -1 -1 -1 -1 -1 -1 -1 -1 0 -1 -1 -1 -1 0 -1 -1 -1 -1 -1 -1 -1 -1 -1 -1 0 -1 0 -1 -1 -1 -1 0 0 0 -1 -1 -1 -1 0 0 0 0 0 -1 -1 0 0 -1 0 -1 0 0 -1 -1 0 -1 -1 -1 -1 0 0 -1 0 0 -1 -1 -1 -1 -1 -1 0 0 -1 -1 -1 -1 -1 0 0 -1 -1 -1 -1 0 -1 0 -1 -1 -1 -1 0 -1 -1 0 -1 -1 -1 -1 -1 -1 -1 -1 -1 -1 -1 -1 -1 0 0 0 -1 0 0 0 -1 0 -1 -1 0 -1 0 0 -1 -1 0 -1 0 0 -1 -1 0 -1 -1 -1 -1 0 -1 0 0 0 -1 -1 -1 0 0 -1 -1 -1 0 0 0 -1 -1 0 -1 -1 0 0 0 -1 -1 0 -1 -1 0 0 0 0 -1 0 0 -1 -1 -1 -1 -1 0 -1 0 0 0 -1 -1 -1 -1 -1 0 0 0 -1 -1 -1 -1 -1 -1 -1 -1 -1 0 -1 -1 -1 -1 0 -1 -1 -1 -1 -1 -1 -1 -1 -1 -1 -1 -1 -1 -1 -1 -1 -1 -1 -1 -1 -1 -1 0 0 -1 -1 -1 -1 -1 0 -1 -1 0 -1 0 -1 0 -1 0 -1 0 -1 0 -1 -1 -1 -1 -1 0 -1 0 0 0 -1 0 0 -1 0 -1 -1 -1 -1 -1 -1 -1 -1 -1 -1 -1 -1 -1 -1 -1 -1 -1 -1 -1 -1 -1 -1 -1 -1 -1 -1 -1 -1 -1 -1 -1 -1 -1 -1 -1 -1 -1 -1 0 0 0 0 -1 -1 -1 -1 -1 -1 -1 0 0 0 0 -1 0 -1 0 -1 -1 0 0 -1 0 -1 0 0 -1 -1 0 -1 -1 -1 -1 0 -1 0 0 0 -1 -1 -1 -1 -1 0 0 0 0 0 -1 -1 -1 -1 -1 0 -1 0 -1 0 -1 0 0 0 -1 -1 0 -1 -1 -1 -1 0 -1 0 0 -1 0 -1 0 0 0 0 -1 -1 -1 -1 -1 -1 -1 -1 -1 -1 -1 -1 -1 0 -1 -1 -1 -1 0 -1 -1 -1 -1 -1 -1 -1 0 0 -1 -1 -1 0 0 -1 -1 -1 -1 -1 -1 -1 -1 -1 -1 -1 -1 -1 -1 -1 -1 -1 -1 -1 -1 -1 -1 -1 -1 -1 -1 0 0 0 0 0 -1 -1 -1 -1 0 -1 -1 -1 -1 0 0 -1 0 0 -1 -1 -1 -1 -1 -1 0 0 -1 -1 -1 -1 -1 0 0 -1 -1 -1 -1 0 -1 0 -1 -1 -1 -1 0 -1 -1 0 -1 -1 -1 -1 -1 -1 -1 -1 -1 -1 -1 -1 -1 -1 -1 -1 0 0 -1 0 -1 0 0 -1 -1 0 -1 -1 -1 -1 0 -1 0 0 0 -1 -1 -1 0 0 -1 -1 -1 0 0 0 -1 -1 0 -1 -1 0 0 0 -1 -1 0 -1 -1 0 0 0 0 -1 0 0 -1 -1 -1 -1 -1 0 -1 0 0 0 -1 -1 -1 -1 -1 -1 -1 -1 -1 -1 -1 -1 0 -1 -1 -1 -1 0 -1 -1 -1 -1 -1 -1 -1 -1 -1 -1 -1 -1 -1 -1 -1 -1 -1 -1 -1 -1 -1 -1 0 0 -1 -1 -1 -1 -1 0 -1 -1 0 -1 0 -1 0 -1 0 -1 0 -1 0 -1 -1 -1 -1 -1 0 -1 0 0 0 -1 0 0 -1 0 -1 -1 -1 -1 -1 -1 -1 -1 -1 -1 -1 -1 -1 -1 -1 -1 -1 -1 -1 -1 -1 -1 -1 -1 -1 -1 -1 -1 -1 -1 -1 -1 -1 -1 -1 -1 -1 -1 0 0 0 0 -1 -1 -1 -1 -1 -1 -1 0 0 0 0 -1 0 -1 0 -1 -1 0 0 -1 0 -1 0 0 -1 -1 0 -1 -1 -1 -1 0 -1 0 0 0 -1 -1 -1 -1 -1 0 0 0 0 0 -1 -1 -1 -1 -1 0 -1 0 -1 0 -1 0 0 0 -1 -1 0 -1 -1 -1 -1 0 -1 0 0 -1 0 -1 0 0 0 0 -1 -1 -1 -1 -1 -1 -1 -1 -1 -1 -1 -1 -1 0 -1 -1 -1 -1 0 -1 -1 -1 -1 -1 -1 -1 0 0 -1 -1 -1 0 0 -1 -1 -1 -1 -1 -1 -1 -1 -1 -1 -1 -1 -1 -1 -1 -1 -1 -1 -1 -1 -1 -1 -1 -1 -1 -1 0 0 0 0 0 -1 -1 -1 -1 0 -1 -1 -1 -1 0 0 -1 0 0 -1 -1 -1 -1 -1 -1 0 0 -1 -1 -1 -1 -1 0 0 -1 -1 -1 -1 0 -1 0 -1 -1 -1 -1 0 -1 -1 0 -1 -1 -1 -1 -1 -1 -1 -1 -1 -1 -1 -1 -1 -1 -1 -1 0 0 -1 0 -1 0 0 -1 -1 0 -1 -1 -1 -1 0 -1 0 0 0 -1 -1 -1 0 0 -1 -1 -1 0 0 0 -1 -1 0 -1 -1 0 0 0 -1 -1 0 -1 -1 0 0 0 0 -1 0 0 -1 -1 -1 -1 -1 0 -1 0 0 0 -1 -1 -1 -1 -1 -1 -1 -1 -1 -1 -1 -1 0 -1 -1 -1 -1 0 -1 -1 -1 -1 -1 -1 -1 -1 -1 -1 -1 -1 -1 -1 -1 -1 -1 -1 -1 -1 -1 -1 0 0 -1 -1 -1 -1 -1 0 -1 -1 0 -1 0 -1 0 -1 0 -1 0 -1 0 -1 -1 -1 -1 -1 0 -1 0 0 0 -1 0 0 -1 0 -1 -1 -1 -1 -1 -1 -1 -1 -1 -1 -1 -1 -1 -1 -1 -1 -1 -1 -1 -1 -1 -1 -1 -1 -1 -1 -1 -1 -1 -1 -1 -1 -1 -1 -1 -1 -1 -1 0 0 0 0 -1 -1 -1 -1 -1 -1 -1 0 0 0 0 -1 0 -1 0 -1 -1 0 0 -1 0 -1 0 0 -1 -1 0 -1 -1 -1 -1 0 -1 0 0 0 -1 -1 -1 -1 -1 0 0 0 0 0 -1 -1 -1 -1 -1 0 -1 0 -1 0 -1 0 0 0 -1 -1 0 -1 -1 -1 -1 0 -1 0 0 -1 0 -1 0 0 0 0 -1 -1 -1 -1 -1 -1 -1 -1 -1 -1 -1 -1 -1 0 -1 -1 -1 -1 0 -1 -1 -1 -1 -1 -1 -1 0 0 -1 -1 -1 0 0 -1 -1 -1 -1 -1 -1 -1 -1 -1 -1 -1 -1 -1 -1 -1 -1 -1 -1 -1 -1 -1 -1 -1 -1 -1 -1 0 0 0 0 0 -1 -1 -1 -1 0 -1 -1 -1 -1 0 0 -1 0 0 -1 -1 -1 -1 -1 -1 0 0 -1 -1 -1 -1 -1 0 0 -1 -1 -1 -1 0 -1 0 -1 -1 -1 -1 0 -1 -1 0 -1 -1 -1 -1 -1 -1 -1 -1 -1 -1 -1 -1 -1 -1 -1 -1 0 0 -1 0 -1 0 0 -1 -1 0 -1 -1 -1 -1 0 -1 0 0 0 -1 -1 -1 0 0 -1 -1 -1 0 0 0 -1 -1 0 -1 -1 0 0 0 -1 -1 0 -1 -1 0 0 0 0 -1 0 0 -1 -1 -1 -1 -1 0 -1 0 0 0 -1 -1 -1 -1 -1 -1 -1 -1 -1 -1 -1 -1 0 -1 -1 -1 -1 0 -1 -1 -1 -1 -1 -1 -1 -1 -1 -1 -1 -1 -1 -1 -1 -1 -1 -1 -1 -1 -1 -1 0 0 -1 -1 -1 -1 -1 0 -1 -1 0 -1 0 -1 0 -1 0 -1 0 -1 0 -1 -1 -1 -1 -1 0 -1 0 0 0 -1 0 0 -1 0 -1 -1 -1 -1 -1 -1 -1 -1 -1 -1 -1 -1 -1 -1 -1 -1 -1 -1 -1 -1 -1 -1 -1 -1 -1 -1 -1 -1 -1 -1 -1 -1 -1 -1 -1 -1 -1 -1 0 0 0 0 -1 -1 -1 -1 -1 -1 -1 0 0 0 0 -1 0 -1 0 -1 -1 0 0 -1 0 -1 0 0 -1 -1 0 -1 -1 -1 -1 0 -1 0 0 0 -1 -1 -1 -1 -1 0 0 0 0 0 -1 -1 -1 -1 -1 0 -1 0 -1 0 -1 0 0 0 -1 -1 0 -1 -1 -1 -1 0 -1 0 0 -1 0 -1 0 0 0 0 -1 -1 -1 -1 -1 -1 -1 -1 -1 -1 -1 -1 -1 0 -1 -1 -1 -1 0 -1 -1 -1 -1 -1 -1 -1 0 0 -1 -1 -1 0 0 -1 -1 -1 -1 -1 -1 -1 -1 -1 -1 -1 -1 -1 -1 -1 -1 -1 -1 -1 -1 -1 -1 -1 -1 -1 -1 0 0 0 0 0 -1 -1 -1 -1 0 -1 -1 -1 -1 0 0 -1 0 0 -1 -1 -1 -1 -1 -1 0 0 -1 -1 -1 -1 -1 0 0 -1 -1 -1 -1 0 -1 0 -1 -1 -1 -1 0 -1 -1 0 -1 -1 -1 -1 -1 -1 -1 -1 -1 -1 -1 -1 -1 -1 -1 -1 0 0 -1 0 -1 0 0 -1 -1 0 -1 -1 -1 -1 0 -1 0 0 0 -1 -1 -1 0 0 -1 -1 -1 0 0 0 -1 -1 0 -1 -1 0 0 0 -1 -1 0 -1 -1 0 0 0 0 -1 0 0 -1 -1 -1 -1 -1 0 -1 0 0 0 -1 -1 -1 -1 -1 -1 -1 -1 -1 -1 -1 -1 0 -1 -1 -1 -1 0 -1 -1 -1 -1 -1 -1 0 -1 -1 0 -1 0 -1 0 -1 -1 -1 -1 -1 -1 -1 -1 -1 -1 -1 -1 -1 -1 -1 -1 -1 -1 -1 -1 -1 -1 -1 -1 -1 -1 0 0 -1 0 -1 0 0 -1 -1 0 -1 -1 -1 -1 -1 -1 -1 0 0 0 0 0 -1 -1 -1 -1 0 -1 -1 -1 -1 0 -1 0 0 -1 0 -1 -1 -1 
0 -1 0 -1 0 0 0 0 0 -1 -1 -1 0 0 0 0 0 0 -1 -1 -1 -1 -1 0 -1 -1 -1 -1 -1 -1 0 0 0 0 0 0 -1 0 0 -1 0 0 0 0 -1 -1 0 0 0 0 0 0 0 -1 0 0 0 -1 0 0 0 0 0 0 0 0 0 0 0 0 -1 0 0 0 0 0 0 -1 0 0 0 0 0 0 0 -1 -1 -1 0 -1 0 0 -1 -1 -1 -1 -1 -1 -1 -1 -1 -1 -1 -1 -1 -1 0 0 -1 0 0 -1 0 0 -1 -1 0 0 0 0 -1 -1 0 0 0 0 0 0 0 0 -1 0 0 -1 0 0 0 0 0 -1 -1 -1 0 -1 0 0 -1 -1 -1 -1 -1 -1 -1 -1 -1 -1 -1 -1 -1 -1 0 0 -1 0 0 -1 0 0 -1 -1 0 0 0 0 -1 -1 0 0 0 0 0 0 0 0 -1 0 0 -1 0 0 0 0 0 -1 -1 -1 0 -1 0 0 -1 -1 -1 -1 -1 -1 -1 -1 -1 -1 -1 -1 -1 -1 0 0 -1 0 0 -1 0 0 -1 -1 0 0 0 0 -1 -1 0 0 0 0 0 0 0 0 -1 0 0 -1 0 0 0 0 0 -1 -1 -1 0 -1 0 0 -1 -1 -1 -1 -1 -1 -1 -1 -1 -1 -1 -1 -1 -1 0 0 -1 0 0 -1 0 0 -1 -1 0 0 0 0 -1 -1 0 0 0 0 0 0 0 0 -1 0 0 -1 0 0 0 0 0 -1 -1 -1 0 -1 0 0 -1 -1 -1 -1 -1 -1 -1 -1 -1 -1 -1 -1 -1 -1 0 0 -1 0 0 -1 0 0 -1 -1 0 0 0 0 -1 -1 0 0 0 0 0 0 0 0 -1 0 0 -1 0 0 0 0 0 -1 -1 -1 0 -1 0 0 -1 -1 -1 -1 -1 -1 -1 -1 -1 -1 -1 -1 -1 -1 0 0 -1 0 0 -1 0 0 -1 -1 0 0 0 0 -1 -1 0 0 0 0 0 0 0 0 -1 0 0 -1 0 0 0 0 0 -1 -1 -1 0 -1 0 0 -1 -1 -1 -1 -1 -1 -1 -1 -1 -1 -1 -1 -1 -1 0 0 -1 0 0 -1 0 0 -1 -1 0 0 0 0 -1 -1 0 0 0 0 0 0 0 0 -1 0 0 -1 0 0 0 0 0 -1 -1 -1 0 -1 0 0 -1 -1 -1 -1 -1 -1 -1 -1 -1 -1 -1 -1 -1 -1 0 0 -1 0 0 -1 0 0 -1 -1 0 0 0 0 -1 -1 0 0 0 0 0 0 0 0 -1 0 0 -1 0 0 0 0 0 -1 -1 -1 0 -1 0 0 -1 -1 -1 -1 -1 -1 -1 -1 -1 -1 -1 -1 -1 -1 0 0 -1 0 0 -1 0 0 -1 -1 0 0 0 0 -1 -1 0 0 0 0 0 0 0 0 -1 0 0 -1 0 0 0 0 0 -1 -1 -1 0 -1 0 0 -1 -1 -1 -1 -1 -1 -1 -1 -1 -1 -1 -1 -1 -1 0 0 -1 0 0 -1 0 0 -1 -1 0 0 0 0 -1 -1 0 0 0 0 0 0 0 0 -1 0 0 -1 0 0 0 0 0 -1 -1 -1 0 -1 0 0 -1 -1 -1 -1 -1 -1 -1 -1 -1 -1 -1 -1 -1 -1 0 0 -1 0 0 -1 0 0 -1 -1 0 0 0 0 -1 -1 0 0 0 0 0 0 0 0 -1 0 0 -1 0 0 0 0 0 -1 -1 -1 0 -1 0 0 -1 -1 -1 -1 -1 -1 -1 -1 -1 -1 -1 -1 -1 -1 0 0 -1 0 0 -1 0 0 -1 -1 0 0 0 0 -1 -1 0 0 0 0 0 0 0 0 -1 0 0 -1 0 0 0 0 0 -1 -1 -1 0 -1 0 0 -1 -1 -1 -1 -1 -1 -1 -1 -1 -1 -1 -1 -1 -1 0 0 -1 0 0 -1 0 0 -1 -1 0 0 0 0 -1 -1 0 0 0 0 0 0 0 0 -1 0 0 -1 0 0 0 0 0 -1 -1 -1 0 -1 0 0 -1 -1 -1 -1 -1 -1 -1 -1 -1 -1 -1 -1 -1 -1 0 0 -1 0 0 -1 0 0 -1 -1 0 0 0 0 -1 -1 0 0 0 0 0 0 0 0 -1 0 0 -1 0 0 0 0 0 -1 -1 -1 0 -1 0 0 -1 -1 -1 -1 -1 -1 -1 -1 -1 -1 -1 -1 -1 -1 0 0 -1 0 0 -1 0 0 -1 -1 0 0 0 0 -1 -1 0 0 0 0 0 0 0 0 -1 0 0 -1 0 0 0 0 0 -1 -1 -1 0 -1 0 0 -1 -1 -1 -1 -1 -1 -1 -1 -1 -1 -1 -1 -1 -1 0 0 -1 0 0 -1 0 0 -1 -1 0 0 0 0 -1 -1 0 0 0 0 0 0 0 0 -1 0 0 -1 0 0 0 0 0 -1 -1 -1 0 -1 0 0 -1 -1 -1 -1 -1 -1 -1 -1 -1 -1 -1 -1 -1 -1 0 0 -1 0 0 -1 0 0 -1 -1 0 0 0 0 -1 -1 0 0 0 0 0 0 0 0 -1 0 0 -1 0 0 0 0 0 -1 -1 -1 0 -1 0 0 -1 -1 -1 -1 -1 -1 -1 -1 -1 -1 -1 -1 -1 -1 0 0 -1 0 0 -1 0 0 -1 -1 0 0 0 0 -1 -1 0 0 0 0 0 0 0 0 -1 0 0 -1 0 0 0 0 0 -1 -1 -1 0 -1 0 0 -1 -1 -1 -1 -1 -1 -1 -1 -1 -1 -1 -1 -1 -1 0 0 -1 0 0 -1 0 0 -1 -1 0 0 0 0 -1 -1 0 0 0 0 0 0 0 0 -1 0 0 -1 0 0 0 0 0 -1 -1 -1 0 -1 0 0 -1 -1 -1 -1 -1 -1 -1 -1 -1 -1 -1 -1 -1 -1 -1 -1 -1 -1 -1 -1 -1 -1 -1 -1 -1 -1 0 0 -1 0 0 0 -1 -1 -1 0 0 0 0 0 -1 0 0 -1 -1 0 0 0 0 -1 -1 0 -1 0 0 0 0 0 0 0 0 0 0 -1 0 0 -1 0 0 0 -1 0 0 0 0 0 -1 -1 -1 -1 -1 -1 -1 -1 -1 -1 -1 -1 -1 -1 -1 0 -1 -1 -1 -1 0 0 0 -1 -1 -1 -1 -1 0 -1 -1 -1 -1 -1 -1 -1 0 0 -1 -1 -1 0 -1 0 0 0 0 -1 -1 0 -1 -1 0 0 0 0 0 -1 -1 -1 -1 0 -1 0 -1 0 0 0 -1 -1 0 0 0 0 0 -1 -1 0 0 0 0 0 0 0 0 0 0 0 0 -1 -1 -1 -1 -1 -1 -1 -1 -1 -1 -1 -1 -1 -1 0 0 -1 -1 -1 0 -1 0 -1 -1 0 -1 0 0 0 0 0 0 0 -1 0 -1 0 -1 0 0 0 0 0 0 0 0 0 -1 0 0 0 0 0 -1 0 0 0 0 -1 0 0 -1 -1 0 0 0 0 0 -1 -1 0 0 0 0 0 -1 -1 -1 -1 0 -1 -1 -1 -1 0 0 0 -1 -1 0 -1 -1 -1 -1 -1 -1 -1 0 0 0 -1 -1 -1 -1 0 0 -1 0 0 -1 -1 -1 -1 0 -1 0 -1 -1 -1 0 0 -1 -1 -1 -1 -1 -1 -1 -1 -1 -1 -1 -1 -1 -1 0 0 0 0 0 0 0 -1 0 0 0 0 0 0 0 -1 -1 0 0 0 0 0 0 0 -1 0 0 -1 0 0 0 0 -1 0 0 -1 -1 0 0 0 0 0 -1 -1 0 0 0 0 0 0 0 -1 0 -1 0 0 0 -1 0 -1 0 0 0 0 0 -1 0 0 -1 0 0 0 0 0 -1 0 0 -1 0 0 0 0 0 0 0 0 0 -1 -1 0 0 0 0 0 0 -1 -1 0 0 0 -1 -1 -1 -1 -1 -1 -1 -1 0 -1 -1 -1 0 0 0 -1 -1 -1 -1 0 0 -1 -1 -1 -1 -1 -1 -1 -1 -1 -1 -1 -1 -1 -1 -1 -1 -1 -1 -1 -1 -1 -1 -1 -1 -1 -1 -1 -1 -1 -1 -1 -1 -1 -1 -1 -1 -1 -1 -1 -1 0 -1 -1 0 -1 0 0 0 0 -1 -1 0 0 0 0 -1 -1 0 0 0 0 0 -1 0 0 0 -1 0 0 0 -1 0 0 0 -1 0 -1 0 0 0 0 -1 0 0 0 0 -1 -1 0 0 -1 -1 -1 -1 -1 -1 -1 -1 -1 -1 -1 -1 -1 -1 -1 -1 -1 -1 -1 -1 -1 -1 -1 -1 -1 -1 -1 -1 -1 -1 0 -1 0 0 0 0 0 0 0 0 0 -1 -1 -1 -1 0 -1 0 -1 0 0 0 0 0 0 0 0 0 -1 0 0 0 -1 0 0 -1 0 0 0 0 0 0 0 -1 0 0 0 0 -1 0 0 0 0 0 0 -1 -1 0 -1 0 0 0 0 0 0 0 -1 -1 0 -1 0 -1 0 0 0 0 -1 0 0 0 -1 0 0 0 0 0 0 -1 0 0 0 0 0 0 0 0 0 0 0 0 -1 -1 -1 -1 -1 -1 -1 -1 -1 -1 -1 -1 -1 0 -1 -1 -1 0 0 0 -1 0 -1 -1 -1 -1 -1 0 0 -1 0 0 0 -1 -1 0 0 0 -1 -1 -1 -1 -1 -1 -1 -1 -1 -1 0 0 -1 0 0 0 0 0 0 0 -1 -1 0 0 -1 0 0 0 0 0 -1 -1 0 0 0 0 0 -1 -1 -1 -1 0 -1 -1 -1 -1 0 0 0 -1 -1 0 -1 -1 -1 -1 -1 -1 -1 0 0 0 -1 -1 -1 -1 0 0 -1 0 0 -1 -1 -1 -1 0 -1 0 -1 -1 -1 0 0 -1 -1 -1 -1 -1 -1 -1 -1 -1 -1 -1 -1 -1 -1 -1 0 0 0 0 0 -1 0 0 0 0 -1 0 0 -1 0 0 0 0 0 -1 -1 0 0 0 0 0 0 0 -1 0 -1 0 0 0 -1 0 -1 0 0 0 0 0 -1 0 0 -1 0 0 0 0 0 -1 0 0 -1 0 0 0 0 0 0 0 -1 -1 0 0 0 0 0 0 -1 -1 -1 -1 -1 -1 -1 -1 -1 -1 0 -1 -1 -1 0 0 0 -1 -1 -1 -1 0 0 -1 -1 -1 -1 -1 -1 -1 -1 -1 -1 -1 -1 -1 -1 -1 -1 -1 -1 -1 -1 -1 -1 -1 -1 -1 -1 -1 -1 -1 -1 -1 -1 -1 -1 -1 -1 -1 -1 -1 -1 0 -1 -1 0 -1 0 0 0 0 -1 -1 0 0 0 0 -1 -1 0 0 0 0 0 -1 0 0 0 -1 0 0 0 -1 0 0 0 -1 0 -1 0 0 0 0 -1 0 0 0 0 -1 -1 0 0 -1 -1 -1 -1 -1 -1 -1 -1 -1 -1 -1 -1 -1 -1 -1 -1 -1 -1 -1 -1 -1 -1 -1 -1 -1 -1 -1 -1 -1 -1 0 -1 0 0 0 0 0 0 0 0 0 -1 -1 -1 -1 0 -1 0 -1 0 0 0 0 0 0 0 0 0 -1 0 0 0 -1 0 0 -1 0 0 0 0 0 0 0 -1 0 0 0 0 -1 0 0 0 0 0 0 -1 -1 0 -1 0 0 0 0 0 0 0 -1 -1 0 -1 0 -1 0 0 0 0 -1 0 0 0 -1 0 0 0 0 0 0 -1 0 0 0 0 0 0 0 0 0 0 0 0 -1 -1 -1 -1 -1 -1 -1 -1 -1 -1 -1 -1 -1 0 -1 -1 -1 0 0 0 -1 0 -1 -1 -1 -1 -1 0 0 -1 0 0 0 -1 -1 0 0 0 -1 -1 -1 -1 -1 -1 -1 -1 -1 -1 0 0 -1 0 0 0 0 0 0 0 -1 -1 0 0 -1 0 0 0 0 0 -1 -1 0 0 0 0 0 -1 -1 -1 -1 0 -1 -1 -1 -1 0 0 0 -1 -1 0 -1 -1 -1 -1 -1 -1 -1 0 0 0 -1 -1 -1 -1 0 0 -1 0 0 -1 -1 -1 -1 0 -1 0 -1 -1 -1 0 0 -1 -1 -1 -1 -1 -1 -1 -1 -1 -1 -1 -1 -1 -1 -1 0 0 0 0 0 -1 0 0 0 0 -1 0 0 -1 0 0 0 0 0 -1 -1 0 0 0 0 0 0 0 -1 0 -1 0 0 0 -1 0 -1 0 0 0 0 0 -1 0 0 -1 0 0 0 0 0 -1 0 0 -1 0 0 0 0 0 0 0 -1 -1 0 0 0 0 0 0 -1 -1 -1 -1 -1 -1 -1 -1 -1 -1 0 -1 -1 -1 0 0 0 -1 -1 -1 -1 0 0 -1 -1 -1 -1 -1 -1 -1 -1 -1 -1 -1 -1 -1 -1 -1 -1 -1 -1 -1 -1 -1 -1 -1 -1 -1 -1 -1 -1 -1 -1 -1 -1 -1 -1 -1 -1 -1 -1 -1 -1 0 -1 -1 0 -1 0 0 0 0 -1 -1 0 0 0 0 -1 -1 0 0 0 0 0 -1 0 0 0 -1 0 0 0 -1 0 0 0 -1 0 -1 0 0 0 0 -1 0 0 0 0 -1 -1 0 0 -1 -1 -1 -1 -1 -1 -1 -1 -1 -1 -1 -1 -1 -1 -1 -1 -1 -1 -1 -1 -1 -1 -1 -1 -1 -1 -1 -1 -1 -1 0 -1 0 0 0 0 0 0 0 0 0 -1 -1 -1 -1 0 -1 0 -1 0 0 0 0 0 0 0 0 0 -1 0 0 0 -1 0 0 -1 0 0 0 0 0 0 0 -1 0 0 0 0 -1 0 0 0 0 0 0 -1 -1 0 -1 0 0 0 0 0 0 0 -1 -1 0 -1 0 -1 0 0 0 0 -1 0 0 0 -1 0 0 0 0 0 0 -1 0 0 0 0 0 0 0 0 0 0 0 0 -1 -1 -1 -1 -1 -1 -1 -1 -1 -1 -1 -1 -1 0 -1 -1 -1 0 0 0 -1 0 -1 -1 -1 -1 -1 0 0 -1 0 0 0 -1 -1 0 0 0 -1 -1 -1 -1 -1 -1 -1 -1 -1 -1 0 0 -1 0 0 0 0 0 0 0 -1 -1 0 0 -1 0 0 0 0 0 -1 -1 0 0 0 0 0 -1 -1 -1 -1 0 -1 -1 -1 -1 0 0 0 -1 -1 0 -1 -1 -1 -1 -1 -1 -1 0 0 0 -1 -1 -1 -1 0 0 -1 0 0 -1 -1 -1 -1 0 -1 0 -1 -1 -1 0 0 -1 -1 -1 -1 -1 -1 -1 -1 -1 -1 -1 -1 -1 -1 -1 0 0 0 0 0 -1 0 0 0 0 -1 0 0 -1 0 0 0 0 0 -1 -1 0 0 0 0 0 0 0 -1 0 -1 0 0 0 -1 0 -1 0 0 0 0 0 -1 0 0 -1 0 0 0 0 0 -1 0 0 -1 0 0 0 0 0 0 0 -1 -1 0 0 0 0 0 0 -1 -1 -1 -1 -1 -1 -1 -1 -1 -1 0 -1 -1 -1 0 0 0 -1 -1 -1 -1 0 0 -1 -1 -1 -1 -1 -1 -1 -1 -1 -1 -1 -1 -1 -1 -1 -1 -1 -1 -1 -1 -1 -1 -1 -1 -1 -1 -1 -1 -1 -1 -1 -1 -1 -1 -1 -1 -1 -1 -1 -1 0 -1 -1 0 -1 0 0 0 0 -1 -1 0 0 0 0 -1 -1 0 0 0 0 0 -1 0 0 0 -1 0 0 0 -1 0 0 0 -1 0 -1 0 0 0 0 -1 0 0 0 0 -1 -1 0 0 -1 -1 -1 -1 -1 -1 -1 -1 -1 -1 -1 -1 -1 -1 -1 -1 -1 -1 -1 -1 -1 -1 -1 -1 -1 -1 -1 -1 -1 -1 0 -1 0 0 0 0 0 0 0 0 0 -1 -1 -1 -1 0 -1 0 -1 0 0 0 0 0 0 0 0 0 -1 0 0 0 -1 0 0 -1 0 0 0 0 0 0 0 -1 0 0 0 0 -1 0 0 0 0 0 0 -1 -1 0 -1 0 0 0 0 0 0 0 -1 -1 0 -1 0 -1 0 0 0 0 -1 0 0 0 -1 0 0 0 0 0 0 -1 0 0 0 0 0 0 0 0 0 0 0 0 -1 -1 -1 -1 -1 -1 -1 -1 -1 -1 -1 -1 -1 0 -1 -1 -1 0 0 0 -1 0 -1 -1 -1 -1 -1 0 0 -1 0 0 0 -1 -1 0 0 0 -1 -1 -1 -1 -1 -1 -1 -1 -1 -1 0 0 -1 0 0 0 0 0 0 0 -1 -1 0 0 -1 0 0 0 0 0 -1 -1 0 0 0 0 0 -1 -1 -1 -1 0 -1 -1 -1 -1 0 0 0 -1 -1 0 -1 -1 -1 -1 -1 -1 -1 0 0 0 -1 -1 -1 -1 0 0 -1 0 0 -1 -1 -1 -1 0 -1 0 -1 -1 -1 0 0 -1 -1 -1 -1 -1 -1 -1 -1 -1 -1 -1 -1 -1 -1 -1 0 0 0 0 0 -1 0 0 0 0 -1 0 0 -1 0 0 0 0 0 -1 -1 0 0 0 0 0 0 0 -1 0 -1 0 0 0 -1 0 -1 0 0 0 0 0 -1 0 0 -1 0 0 0 0 0 -1 0 0 -1 0 0 0 0 0 0 0 -1 -1 0 0 0 0 0 0 -1 -1 -1 -1 -1 -1 0 -1 0 -1 0 -1 0 0 0 0 -1 -1 -1 -1 -1 -1 -1 -1 -1 -1 -1 0 0 0 0 0 0 0 0 0 0 0 0 0 -1 0 0 0 0 0 

SCALARS ManifoldID int 1
LOOKUP_TABLE default