# vtk DataFile Version 3.0
Triangulation generated with deal.II
ASCII
DATASET UNSTRUCTURED_GRID
POINTS 80 double
-15 1.5 0
-13.0625 1.5 0
-15 1 0
-13.0625 1 0
-15 0.5 0
-13.0625 0.5 0
-15 -2.75546e-16 0
-13.0625 -2.75546e-16 0
-11.25 1.5 0
-11.25 1 0
-11.25 0.5 0
-11.25 -2.75546e-16 0
-9.5625 1.5 0
-9.5625 1 0
-9.5625 0.5 0
-9.5625 -2.75546e-16 0
-8 1.5 0
-8 1 0
-8 0.5 0
-8 -2.75546e-16 0
-6.5625 1.5 0
-6.5625 1 0
-6.5625 0.5 0
-6.5625 -2.75546e-16 0
-5.25 1.5 0
-5.25 1 0
-5.25 0.5 0
-5.25 -2.75546e-16 0
-4.0625 1.5 0
-4.0625 1 0
-4.0625 0.5 0
-4.0625 -2.75546e-16 0
-3 1.5 0
-3 1 0
-3 0.5 0
-3 -2.75546e-16 0
-2.0625 1.5 0
-2.0625 1 0
-2.0625 0.5 0
-2.0625 -2.75546e-16 0
-1.25 1.5 0
-1.25 1 0
-1.25 0.5 0
-1.25 -2.75546e-16 0
-0.5625 1.5 0
-0.5625 1 0
-0.5625 0.5 0
-0.5625 -2.75546e-16 0
-2.22045e-16 1.5 0
-2.22045e-16 1 0
0 0.5 0
0 -2.75546e-16 0
3 1.5 0
3 1 0
2.5 1.5 0
2.66667 1.16667 0
2 1.5 0
2.61803 1.11803 0
3 0.5 0
2 0.5 0
2 1 0
2.5 0.5 0
2.33333 0.833333 0
1.5 0 0
1.5 0.5 0
2 0 0
1.5 1 0
1.5 1.5 0
2.5 0 0
3 0 0
0.5 1.5 0
0.333333 1.16667 0
0.381966 1.11803 0
1 1.5 0
1 0.5 0
0.5 0.5 0
1 1 0
0.666667 0.833333 0
1 -9.18485e-17 0
0.5 -1.83697e-16 0

CELLS 195 701
4 0 2 3 1
4 4 5 3 2
4 6 7 5 4
4 1 3 9 8
4 5 10 9 3
4 7 11 10 5
4 8 9 13 12
4 10 14 13 9
4 11 15 14 10
4 12 13 17 16
4 14 18 17 13
4 15 19 18 14
4 16 17 21 20
4 18 22 21 17
4 19 23 22 18
4 20 21 25 24
4 22 26 25 21
4 23 27 26 22
4 24 25 29 28
4 26 30 29 25
4 27 31 30 26
4 28 29 33 32
4 30 34 33 29
4 31 35 34 30
4 32 33 37 36
4 34 38 37 33
4 35 39 38 34
4 36 37 41 40
4 38 42 41 37
4 39 43 42 38
4 40 41 45 44
4 42 46 45 41
4 43 47 46 42
4 44 45 49 48
4 46 50 49 45
4 47 51 50 46
4 52 54 55 53
4 56 57 55 54
4 58 53 55 57
4 59 61 62 60
4 56 60 62 57
4 58 57 62 61
4 63 65 59 64
4 64 59 60 66
4 67 66 60 56
4 65 68 61 59
4 69 58 61 68
4 48 49 71 70
4 50 72 71 49
4 73 70 71 72
4 74 76 77 75
4 50 75 77 72
4 73 72 77 76
4 63 64 74 78
4 78 74 75 79
4 51 79 75 50
4 64 66 76 74
4 67 73 76 66
2 0 1
2 0 2
2 1 3
2 1 8
2 2 3
2 3 9
2 4 2
2 4 5
2 5 3
2 5 10
2 6 4
2 6 7
2 7 5
2 7 11
2 8 9
2 8 12
2 9 13
2 10 9
2 10 14
2 11 10
2 11 15
2 12 13
2 12 16
2 13 17
2 14 13
2 14 18
2 15 14
2 15 19
2 16 17
2 16 20
2 17 21
2 18 17
2 18 22
2 19 18
2 19 23
2 20 21
2 20 24
2 21 25
2 22 21
2 22 26
2 23 22
2 23 27
2 24 25
2 24 28
2 25 29
2 26 25
2 26 30
2 27 26
2 27 31
2 28 29
2 28 32
2 29 33
2 30 29
2 30 34
2 31 30
2 31 35
2 32 33
2 32 36
2 33 37
2 34 33
2 34 38
2 35 34
2 35 39
2 36 37
2 36 40
2 37 41
2 38 37
2 38 42
2 39 38
2 39 43
2 40 41
2 40 44
2 41 45
2 42 41
2 42 46
2 43 42
2 43 47
2 44 45
2 44 48
2 45 49
2 46 45
2 46 50
2 47 46
2 47 51
2 48 49
2 48 70
2 49 71
2 50 49
2 50 72
2 50 75
2 51 50
2 51 79
2 52 53
2 52 54
2 53 55
2 54 55
2 56 54
2 56 57
2 56 60
2 57 55
2 57 62
2 58 53
2 58 57
2 58 61
2 59 60
2 59 61
2 60 62
2 61 62
2 63 64
2 63 65
2 63 78
2 64 59
2 64 66
2 64 74
2 65 59
2 65 68
2 66 60
2 66 76
2 67 56
2 67 66
2 67 73
2 68 61
2 69 58
2 69 68
2 70 71
2 72 71
2 72 77
2 73 70
2 73 72
2 73 76
2 74 75
2 74 76
2 75 77
2 76 77
2 78 74
2 78 79
2 79 75

CELL_TYPES 195
9 9 9 9 9 9 9 9 9 9 9 9 9 9 9 9 9 9 9 9 9 9 9 9 9 9 9 9 9 9 9 9 9 9 9 9 9 9 9 9 9 9 9 9 9 9 9 9 9 9 9 9 9 9 9 9 9 9 
3 3 3 3 3 3 3 3 3 3 3 3 3 3 3 3 3 3 3 3 3 3 3 3 3 3 3 3 3 3 3 3 3 3 3 3 3 3 3 3 3 3 3 3 3 3 3 3 3 3 3 3 3 3 3 3 3 3 3 3 3 3 3 3 3 3 3 3 3 3 3 3 3 3 3 3 3 3 3 3 3 3 3 3 3 3 3 3 3 3 3 3 3 3 3 3 3 3 3 3 3 3 3 3 3 3 3 3 3 3 3 3 3 3 3 3 3 3 3 3 3 3 3 3 3 3 3 3 3 3 3 3 3 3 3 3 3 


CELL_DATA 195
SCALARS MaterialID int 1
LOOKUP_TABLE default
0 0 0 0 0 0 0 0 0 0 0 0 0 0 0 0 0 0 0 0 0 0 0 0 0 0 0 0 0 0 0 0 0 0 0 0 0 0 0 1 1 1 1 1 1 1 1 0 0 0 1 1 1 1 1 1 1 1 
0 0 -1 0 -1 -1 0 -1 -1 -1 0 0 -1 0 -1 0 -1 -1 -1 -1 0 -1 0 -1 -1 -1 -1 0 -1 0 -1 -1 -1 -1 0 -1 0 -1 -1 -1 -1 0 -1 0 -1 -1 -1 -1 0 -1 0 -1 -1 -1 -1 0 -1 0 -1 -1 -1 -1 0 -1 0 -1 -1 -1 -1 0 -1 0 -1 -1 -1 -1 0 -1 0 -1 -1 -1 -1 0 -1 0 -1 -1 -1 -1 -1 0 0 0 -1 -1 0 -1 -1 -1 -1 0 -1 -1 -1 -1 -1 -1 -1 0 0 -1 -1 -1 -1 0 -1 -1 0 -1 0 -1 0 0 -1 -1 -1 0 -1 -1 -1 -1 -1 -1 -1 0 -1 


SCALARS ManifoldID int 1
LOOKUP_TABLE default
0 0 0 0 0 0 0 0 0 0 0 0 0 0 0 0 0 0 0 0 0 0 0 0 0 0 0 0 0 0 0 0 0 0 0 0 0 0 0 1 1 1 0 0 0 0 0 0 0 0 1 1 1 0 0 0 0 0 
0 0 0 0 0 0 0 0 0 0 0 0 0 0 0 0 0 0 0 0 0 0 0 0 0 0 0 0 0 0 0 0 0 0 0 0 0 0 0 0 0 0 0 0 0 0 0 0 0 0 0 0 0 0 0 0 0 0 0 0 0 0 0 0 0 0 0 0 0 0 0 0 0 0 0 0 0 0 0 0 0 0 0 0 0 0 0 0 1 0 0 0 0 0 0 0 0 1 0 0 1 0 1 0 0 0 1 1 0 0 0 0 0 0 0 0 0 0 0 0 0 0 0 0 0 0 1 0 1 0 0 0 1 1 0 0 0 

