# vtk DataFile Version 3.0
Triangulation generated with deal.II
ASCII
DATASET UNSTRUCTURED_GRID
POINTS 48 double
-3 1.5 0
-2.0625 1.5 0
-3 1 0
-2.0625 1 0
-3 0.5 0
-2.0625 0.5 0
-3 -2.75546e-16 0
-2.0625 -2.75546e-16 0
-1.25 1.5 0
-1.25 1 0
-1.25 0.5 0
-1.25 -2.75546e-16 0
-0.5625 1.5 0
-0.5625 1 0
-0.5625 0.5 0
-0.5625 -2.75546e-16 0
-2.22045e-16 1.5 0
-2.22045e-16 1 0
0 0.5 0
0 -2.75546e-16 0
3 1.5 0
3 1 0
2.5 1.5 0
2.66667 1.16667 0
2 1.5 0
2.61803 1.11803 0
3 0.5 0
2 0.5 0
2 1 0
2.5 0.5 0
2.33333 0.833333 0
1.5 0 0
1.5 0.5 0
2 0 0
1.5 1 0
1.5 1.5 0
2.5 0 0
3 0 0
0.5 1.5 0
0.333333 1.16667 0
0.381966 1.11803 0
1 1.5 0
1 0.5 0
0.5 0.5 0
1 1 0
0.666667 0.833333 0
1 -9.18485e-17 0
0.5 -1.83697e-16 0

CELLS 115 413
4 0 2 3 1
4 4 5 3 2
4 6 7 5 4
4 1 3 9 8
4 5 10 9 3
4 7 11 10 5
4 8 9 13 12
4 10 14 13 9
4 11 15 14 10
4 12 13 17 16
4 14 18 17 13
4 15 19 18 14
4 20 22 23 21
4 24 25 23 22
4 26 21 23 25
4 27 29 30 28
4 24 28 30 25
4 26 25 30 29
4 31 33 27 32
4 32 27 28 34
4 35 34 28 24
4 33 36 29 27
4 37 26 29 36
4 16 17 39 38
4 18 40 39 17
4 41 38 39 40
4 42 44 45 43
4 18 43 45 40
4 41 40 45 44
4 31 32 42 46
4 46 42 43 47
4 19 47 43 18
4 32 34 44 42
4 35 41 44 34
2 0 1
2 0 2
2 1 3
2 1 8
2 2 3
2 3 9
2 4 2
2 4 5
2 5 3
2 5 10
2 6 4
2 6 7
2 7 5
2 7 11
2 8 9
2 8 12
2 9 13
2 10 9
2 10 14
2 11 10
2 11 15
2 12 13
2 12 16
2 13 17
2 14 13
2 14 18
2 15 14
2 15 19
2 16 17
2 16 38
2 17 39
2 18 17
2 18 40
2 18 43
2 19 18
2 19 47
2 20 21
2 20 22
2 21 23
2 22 23
2 24 22
2 24 25
2 24 28
2 25 23
2 25 30
2 26 21
2 26 25
2 26 29
2 27 28
2 27 29
2 28 30
2 29 30
2 31 32
2 31 33
2 31 46
2 32 27
2 32 34
2 32 42
2 33 27
2 33 36
2 34 28
2 34 44
2 35 24
2 35 34
2 35 41
2 36 29
2 37 26
2 37 36
2 38 39
2 40 39
2 40 45
2 41 38
2 41 40
2 41 44
2 42 43
2 42 44
2 43 45
2 44 45
2 46 42
2 46 47
2 47 43

CELL_TYPES 115
9 9 9 9 9 9 9 9 9 9 9 9 9 9 9 9 9 9 9 9 9 9 9 9 9 9 9 9 9 9 9 9 9 9 
3 3 3 3 3 3 3 3 3 3 3 3 3 3 3 3 3 3 3 3 3 3 3 3 3 3 3 3 3 3 3 3 3 3 3 3 3 3 3 3 3 3 3 3 3 3 3 3 3 3 3 3 3 3 3 3 3 3 3 3 3 3 3 3 3 3 3 3 3 3 3 3 3 3 3 3 3 3 3 3 3 


CELL_DATA 115
SCALARS MaterialID int 1
LOOKUP_TABLE default
0 0 0 0 0 0 0 0 0 0 0 0 0 0 0 1 1 1 1 1 1 1 1 0 0 0 1 1 1 1 1 1 1 1 
0 0 -1 0 -1 -1 0 -1 -1 -1 0 0 -1 0 -1 0 -1 -1 -1 -1 0 -1 0 -1 -1 -1 -1 0 -1 0 -1 -1 -1 -1 -1 0 0 0 -1 -1 0 -1 -1 -1 -1 0 -1 -1 -1 -1 -1 -1 -1 0 0 -1 -1 -1 -1 0 -1 -1 0 -1 0 -1 0 0 -1 -1 -1 0 -1 -1 -1 -1 -1 -1 -1 0 -1 


SCALARS ManifoldID int 1
LOOKUP_TABLE default
0 0 0 0 0 0 0 0 0 0 0 0 0 0 0 1 1 1 0 0 0 0 0 0 0 0 1 1 1 0 0 0 0 0 
0 0 0 0 0 0 0 0 0 0 0 0 0 0 0 0 0 0 0 0 0 0 0 0 0 0 0 0 0 0 0 0 1 0 0 0 0 0 0 0 0 1 0 0 1 0 1 0 0 0 1 1 0 0 0 0 0 0 0 0 0 0 0 0 0 0 0 0 0 0 1 0 1 0 0 0 1 1 0 0 0 

