# vtk DataFile Version 3.0
Triangulation generated with deal.II
ASCII
DATASET UNSTRUCTURED_GRID
POINTS 63 double
-3 1.5 0
-2.0625 1.5 0
-3 1 0
-2.0625 1 0
-3 0.5 0
-2.0625 0.5 0
-3 -2.75546e-16 0
-3 0.264 0
-2.0625 -2.75546e-16 0
-2.0625 0.264 0
-1.25 1.5 0
-1.25 1 0
-1.25 0.5 0
-1.25 -2.75546e-16 0
-1.25 0.264 0
-0.5625 1.5 0
-0.5625 1 0
-0.5625 0.5 0
-0.5625 -2.75546e-16 0
-0.5625 0.264 0
-2.22045e-16 1.5 0
-2.22045e-16 1 0
0 0.5 0
0 -2.75546e-16 0
9.89841e-34 0.264 0
3 1.5 0
3 1 0
2.5 1.5 0
2.66667 1.16667 0
2 1.5 0
2.61803 1.11803 0
3 0.5 0
2 0.5 0
2 1 0
2.5 0.5 0
2.33333 0.833333 0
1.5 0 0
1.5 0.5 0
2 0 0
1.5 1 0
2.5 0 0
1.5 1.5 0
1.764 1.5 0
1.5 1.236 0
1.72665 1.27335 0
3 5.6241e-33 0
2.736 -3.23307e-17 0
3 0.264 0
2.77335 0.22665 0
0.5 1.5 0
0.333333 1.16667 0
0.381966 1.11803 0
1 1.5 0
1 0.5 0
0.5 0.5 0
1 1 0
0.666667 0.833333 0
1 -9.18485e-17 0
0.5 -1.83697e-16 0
0.264 -2.2705e-16 0
0.22665 0.22665 0
1.236 1.5 0
1.27335 1.27335 0

CELLS 154 554
4 0 2 3 1
4 4 5 3 2
4 6 8 9 7
4 4 7 9 5
4 1 3 11 10
4 5 12 11 3
4 8 13 14 9
4 5 9 14 12
4 10 11 16 15
4 12 17 16 11
4 13 18 19 14
4 12 14 19 17
4 15 16 21 20
4 17 22 21 16
4 18 23 24 19
4 17 19 24 22
4 25 27 28 26
4 29 30 28 27
4 31 26 28 30
4 32 34 35 33
4 29 33 35 30
4 31 30 35 34
4 36 38 32 37
4 37 32 33 39
4 38 40 34 32
4 41 43 44 42
4 29 42 44 33
4 39 33 44 43
4 45 47 48 46
4 40 46 48 34
4 31 34 48 47
4 20 21 50 49
4 22 51 50 21
4 52 49 50 51
4 53 55 56 54
4 22 54 56 51
4 52 51 56 55
4 36 37 53 57
4 57 53 54 58
4 37 39 55 53
4 23 59 60 24
4 22 24 60 54
4 58 54 60 59
4 41 61 62 43
4 39 43 62 55
4 52 55 62 61
2 0 1
2 0 2
2 1 3
2 1 10
2 2 3
2 3 11
2 4 2
2 4 5
2 4 7
2 5 3
2 5 9
2 5 12
2 6 7
2 6 8
2 7 9
2 8 9
2 8 13
2 9 14
2 10 11
2 10 15
2 11 16
2 12 11
2 12 14
2 12 17
2 13 14
2 13 18
2 14 19
2 15 16
2 15 20
2 16 21
2 17 16
2 17 19
2 17 22
2 18 19
2 18 23
2 19 24
2 20 21
2 20 49
2 21 50
2 22 21
2 22 24
2 22 51
2 22 54
2 23 24
2 23 59
2 24 60
2 25 26
2 25 27
2 26 28
2 27 28
2 29 27
2 29 30
2 29 33
2 29 42
2 30 28
2 30 35
2 31 26
2 31 30
2 31 34
2 31 47
2 32 33
2 32 34
2 33 35
2 33 44
2 34 35
2 34 48
2 36 37
2 36 38
2 36 57
2 37 32
2 37 39
2 37 53
2 38 32
2 38 40
2 39 33
2 39 43
2 39 55
2 40 34
2 40 46
2 41 42
2 41 43
2 41 61
2 42 44
2 43 44
2 43 62
2 45 46
2 45 47
2 46 48
2 47 48
2 49 50
2 51 50
2 51 56
2 52 49
2 52 51
2 52 55
2 52 61
2 53 54
2 53 55
2 54 56
2 54 60
2 55 56
2 55 62
2 57 53
2 57 58
2 58 54
2 58 59
2 59 60
2 61 62

CELL_TYPES 154
9 9 9 9 9 9 9 9 9 9 9 9 9 9 9 9 9 9 9 9 9 9 9 9 9 9 9 9 9 9 9 9 9 9 9 9 9 9 9 9 9 9 9 9 9 9 
3 3 3 3 3 3 3 3 3 3 3 3 3 3 3 3 3 3 3 3 3 3 3 3 3 3 3 3 3 3 3 3 3 3 3 3 3 3 3 3 3 3 3 3 3 3 3 3 3 3 3 3 3 3 3 3 3 3 3 3 3 3 3 3 3 3 3 3 3 3 3 3 3 3 3 3 3 3 3 3 3 3 3 3 3 3 3 3 3 3 3 3 3 3 3 3 3 3 3 3 3 3 3 3 3 3 3 3 


CELL_DATA 154
SCALARS MaterialID int 1
LOOKUP_TABLE default
0 0 0 0 0 0 0 0 0 0 0 0 0 0 0 0 0 0 0 1 1 1 1 1 1 1 1 1 1 1 1 0 0 0 1 1 1 1 1 1 1 1 1 1 1 1 
0 0 -1 0 -1 -1 0 -1 0 -1 -1 -1 0 0 -1 -1 0 -1 -1 0 -1 -1 -1 -1 -1 0 -1 -1 0 -1 -1 -1 -1 -1 0 -1 -1 0 -1 -1 -1 -1 -1 -1 0 -1 0 0 -1 -1 0 -1 -1 0 -1 -1 0 -1 -1 0 -1 -1 -1 -1 -1 -1 -1 0 0 -1 -1 -1 -1 0 -1 -1 -1 -1 0 0 -1 0 -1 -1 -1 0 0 -1 -1 -1 -1 -1 0 -1 -1 0 -1 -1 -1 -1 -1 -1 -1 0 -1 0 -1 -1 


SCALARS ManifoldID int 1
LOOKUP_TABLE default
0 0 0 0 0 0 0 0 0 0 0 0 0 0 0 0 0 0 0 1 1 1 0 0 0 0 0 0 0 0 0 0 0 0 1 1 1 0 0 0 0 0 0 0 0 0 
0 0 0 0 0 0 0 0 0 0 0 0 0 0 0 0 0 0 0 0 0 0 0 0 0 0 0 0 0 0 0 0 0 0 0 0 0 0 0 0 0 1 0 0 0 0 0 0 0 0 0 1 0 0 0 1 0 1 0 0 0 0 1 0 1 0 0 0 0 0 0 0 0 0 0 0 0 0 0 0 0 0 0 0 0 0 0 0 0 0 0 1 0 1 0 0 0 0 1 0 1 0 0 0 0 0 0 0 

